LAMMPS

8 atoms
2 atom types

0 2.25000000         xlo xhi
0 2.25000000         ylo yhi
0 2.25000000         zlo zhi

Atoms

1 1 0.6188021 0.6188021 0.6188021
2 1 0.6188021 1.7735029 1.7735029
3 1 1.7735029 0.6188021 1.7735029
4 1 1.7735029 1.7735029 0.6188021
5 2 0.0414519 0.0414519 1.1961522
6 2 0.0414519 1.1961522 0.0414519
7 2 1.1961522 0.0414519 0.0414519
8 2 1.1961522 1.1961522 1.1961522
