LAMMPS

8 atoms
2 atom types

0 2.056 xlo xhi
0 2.056 ylo yhi
0 2.056 zlo zhi

Atoms

1 1 1.028 1.028 1.028
2 1 0.0 0.0 1.028
3 1 0.0 1.028 0.0
4 1 1.028 0.0 0.0
5 2 0.0 0.0 0.0
6 2 1.028 1.028 0.0
7 2 1.028 0.0 1.028
8 2 0.0 1.028 1.028
